# vtk DataFile Version 2.0
VTK from Matlab
ASCII
DATASET UNSTRUCTURED_GRID
POINTS 13145 float
    0.000500000000       0.000200000000      0.000000000000
    0.000000000000       0.000200000000      0.000000000000
    0.000000000000       0.000000000000      0.000000000000
    0.000500000000       0.000000000000      0.000000000000
   -0.000500000000       0.000200000000      0.000000000000
   -0.000500000000       0.000000000000      0.000000000000
    0.000500000000      -0.000200000000      0.000000000000
    0.000000000000      -0.000200000000      0.000000000000
    0.000000000000      -0.000500000000      0.000000000000
    0.000500000000      -0.000500000000      0.000000000000
   -0.000500000000      -0.000200000000      0.000000000000
   -0.000500000000      -0.000500000000      0.000000000000
    0.000000000000       0.000500000000      0.000000000000
   -0.000500000000       0.000500000000      0.000000000000
    0.000500000000       0.000500000000      0.000000000000
    0.000487500000       0.000200000000      0.000000000000
    0.000475000000       0.000200000000      0.000000000000
    0.000462500000       0.000200000000      0.000000000000
    0.000450000000       0.000200000000      0.000000000000
    0.000437500000       0.000200000000      0.000000000000
    0.000425000000       0.000200000000      0.000000000000
    0.000412500000       0.000200000000      0.000000000000
    0.000400000000       0.000200000000      0.000000000000
    0.000387500000       0.000200000000      0.000000000000
    0.000375000000       0.000200000000      0.000000000000
    0.000362500000       0.000200000000      0.000000000000
    0.000350000000       0.000200000000      0.000000000000
    0.000337500000       0.000200000000      0.000000000000
    0.000325000000       0.000200000000      0.000000000000
    0.000312500000       0.000200000000      0.000000000000
    0.000300000000       0.000200000000      0.000000000000
    0.000287500000       0.000200000000      0.000000000000
    0.000275000000       0.000200000000      0.000000000000
    0.000262500000       0.000200000000      0.000000000000
    0.000250000000       0.000200000000      0.000000000000
    0.000237500000       0.000200000000      0.000000000000
    0.000225000000       0.000200000000      0.000000000000
    0.000212500000       0.000200000000      0.000000000000
    0.000200000000       0.000200000000      0.000000000000
    0.000187500000       0.000200000000      0.000000000000
    0.000175000000       0.000200000000      0.000000000000
    0.000162500000       0.000200000000      0.000000000000
    0.000150000000       0.000200000000      0.000000000000
    0.000137500000       0.000200000000      0.000000000000
    0.000125000000       0.000200000000      0.000000000000
    0.000112500000       0.000200000000      0.000000000000
    0.000100000000       0.000200000000      0.000000000000
    0.000087500000       0.000200000000      0.000000000000
    0.000075000000       0.000200000000      0.000000000000
    0.000062500000       0.000200000000      0.000000000000
    0.000050000000       0.000200000000      0.000000000000
    0.000037500000       0.000200000000      0.000000000000
    0.000025000000       0.000200000000      0.000000000000
    0.000012500000       0.000200000000      0.000000000000
    0.000000000000       0.000191530400      0.000000000000
    0.000000000000       0.000183385000      0.000000000000
    0.000000000000       0.000175551400      0.000000000000
    0.000000000000       0.000168017600      0.000000000000
    0.000000000000       0.000160772200      0.000000000000
    0.000000000000       0.000153804100      0.000000000000
    0.000000000000       0.000147102700      0.000000000000
    0.000000000000       0.000140657800      0.000000000000
    0.000000000000       0.000134459500      0.000000000000
    0.000000000000       0.000128498500      0.000000000000
    0.000000000000       0.000122765700      0.000000000000
    0.000000000000       0.000117252300      0.000000000000
    0.000000000000       0.000111949900      0.000000000000
    0.000000000000       0.000106850500      0.000000000000
    0.000000000000       0.000101946200      0.000000000000
    0.000000000000       0.000097229700      0.000000000000
    0.000000000000       0.000092693600      0.000000000000
    0.000000000000       0.000088331200      0.000000000000
    0.000000000000       0.000084135800      0.000000000000
    0.000000000000       0.000080101000      0.000000000000
    0.000000000000       0.000076220500      0.000000000000
    0.000000000000       0.000072488700      0.000000000000
    0.000000000000       0.000068899600      0.000000000000
    0.000000000000       0.000065447900      0.000000000000
    0.000000000000       0.000062128400      0.000000000000
    0.000000000000       0.000058935900      0.000000000000
    0.000000000000       0.000055865500      0.000000000000
    0.000000000000       0.000052912700      0.000000000000
    0.000000000000       0.000050073000      0.000000000000
    0.000000000000       0.000047341900      0.000000000000
    0.000000000000       0.000044715300      0.000000000000
    0.000000000000       0.000042189300      0.000000000000
    0.000000000000       0.000039759900      0.000000000000
    0.000000000000       0.000037423600      0.000000000000
    0.000000000000       0.000035176700      0.000000000000
    0.000000000000       0.000033015700      0.000000000000
    0.000000000000       0.000030937500      0.000000000000
    0.000000000000       0.000028938800      0.000000000000
    0.000000000000       0.000027016700      0.000000000000
    0.000000000000       0.000025168100      0.000000000000
    0.000000000000       0.000023390200      0.000000000000
    0.000000000000       0.000021680400      0.000000000000
    0.000000000000       0.000020036000      0.000000000000
    0.000000000000       0.000018454600      0.000000000000
    0.000000000000       0.000016933700      0.000000000000
    0.000000000000       0.000015471000      0.000000000000
    0.000000000000       0.000014064400      0.000000000000
    0.000000000000       0.000012711500      0.000000000000
    0.000000000000       0.000011410400      0.000000000000
    0.000000000000       0.000010159100      0.000000000000
    0.000000000000       0.000008955800      0.000000000000
    0.000000000000       0.000007798400      0.000000000000
    0.000000000000       0.000006685400      0.000000000000
    0.000000000000       0.000005615000      0.000000000000
    0.000000000000       0.000004585500      0.000000000000
    0.000000000000       0.000003595500      0.000000000000
    0.000000000000       0.000002643300      0.000000000000
    0.000000000000       0.000001727600      0.000000000000
    0.000000000000       0.000000847000      0.000000000000
    0.000003968300       0.000000000000      0.000000000000
    0.000007936500       0.000000000000      0.000000000000
    0.000011904800       0.000000000000      0.000000000000
    0.000015873000       0.000000000000      0.000000000000
    0.000019841300       0.000000000000      0.000000000000
    0.000023809500       0.000000000000      0.000000000000
    0.000027777800       0.000000000000      0.000000000000
    0.000031746000       0.000000000000      0.000000000000
    0.000035714300       0.000000000000      0.000000000000
    0.000039682500       0.000000000000      0.000000000000
    0.000043650800       0.000000000000      0.000000000000
    0.000047619000       0.000000000000      0.000000000000
    0.000051587300       0.000000000000      0.000000000000
    0.000055555600       0.000000000000      0.000000000000
    0.000059523800       0.000000000000      0.000000000000
    0.000063492100       0.000000000000      0.000000000000
    0.000067460300       0.000000000000      0.000000000000
    0.000071428600       0.000000000000      0.000000000000
    0.000075396800       0.000000000000      0.000000000000
    0.000079365100       0.000000000000      0.000000000000
    0.000083333300       0.000000000000      0.000000000000
    0.000087301600       0.000000000000      0.000000000000
    0.000091269800       0.000000000000      0.000000000000
    0.000095238100       0.000000000000      0.000000000000
    0.000099206400       0.000000000000      0.000000000000
    0.000103174600       0.000000000000      0.000000000000
    0.000107142900       0.000000000000      0.000000000000
    0.000111111100       0.000000000000      0.000000000000
    0.000115079400       0.000000000000      0.000000000000
    0.000119047600       0.000000000000      0.000000000000
    0.000123015900       0.000000000000      0.000000000000
    0.000126984100       0.000000000000      0.000000000000
    0.000130952400       0.000000000000      0.000000000000
    0.000134920600       0.000000000000      0.000000000000
    0.000138888900       0.000000000000      0.000000000000
    0.000142857100       0.000000000000      0.000000000000
    0.000146825400       0.000000000000      0.000000000000
    0.000150793700       0.000000000000      0.000000000000
    0.000154761900       0.000000000000      0.000000000000
    0.000158730200       0.000000000000      0.000000000000
    0.000162698400       0.000000000000      0.000000000000
    0.000166666700       0.000000000000      0.000000000000
    0.000170634900       0.000000000000      0.000000000000
    0.000174603200       0.000000000000      0.000000000000
    0.000178571400       0.000000000000      0.000000000000
    0.000182539700       0.000000000000      0.000000000000
    0.000186507900       0.000000000000      0.000000000000
    0.000190476200       0.000000000000      0.000000000000
    0.000194444400       0.000000000000      0.000000000000
    0.000198412700       0.000000000000      0.000000000000
    0.000202381000       0.000000000000      0.000000000000
    0.000206349200       0.000000000000      0.000000000000
[...]
POINT_DATA 13145
VECTORS Displacement float
    0.007717456697       0.000529609481      0.000000000000
    0.007215819389       0.000003832724      0.000000000000
    0.007230319727      -0.000000786597      0.000000000000
    0.009234734185       0.004435058599      0.000000000000
    0.007215620369       0.000004587766      0.000000000000
    0.007234098310       0.000000321299      0.000000000000
    0.008833925843      -0.000980495179      0.000000000000
    0.007234810942       0.000001166800      0.000000000000
    0.007232209652       0.000000000000      0.000000000000
    0.007300129122       0.000000000000      0.000000000000
    0.007233909947       0.000000309589      0.000000000000
    0.007233650696       0.000000000000      0.000000000000
    0.007209349972       0.000006685000      0.000000000000
    0.007214107690       0.000006685000      0.000000000000
    0.007268986339       0.000006685000      0.000000000000
    0.007692170954       0.000470508284      0.000000000000
    0.007676006379       0.000408385789      0.000000000000
    0.007677561866       0.000350575575      0.000000000000
    0.007651089869       0.000289492402      0.000000000000
    0.007540646973       0.000219588830      0.000000000000
    0.007486676300       0.000162994719      0.000000000000
    0.007471546051       0.000118856031      0.000000000000
    0.007531502146       0.000075647766      0.000000000000
    0.007415592391       0.000043136951      0.000000000000
    0.007268885534       0.000021800426      0.000000000000
    0.007251987534       0.000019079726      0.000000000000
    0.007244971644       0.000017001275      0.000000000000
    0.007244546904       0.000014538422      0.000000000000
    0.007229388473       0.000008358756      0.000000000000
    0.007223415148       0.000005312564      0.000000000000
    0.007221805855       0.000003282977      0.000000000000
    0.007221956700       0.000002971949      0.000000000000
    0.007221619873       0.000003123763      0.000000000000
    0.007221439659       0.000003208011      0.000000000000
    0.007221069260       0.000003415063      0.000000000000
    0.007220431667       0.000003659236      0.000000000000
    0.007219776673       0.000003870457      0.000000000000
    0.007219224217       0.000004008371      0.000000000000
    0.007218765972       0.000004091843      0.000000000000
    0.007218373968       0.000004140492      0.000000000000
    0.007218029728       0.000004166380      0.000000000000
    0.007217724207       0.000004170504      0.000000000000
    0.007217453097       0.000004155303      0.000000000000
    0.007217212385       0.000004126724      0.000000000000
    0.007216998022       0.000004090592      0.000000000000
    0.007216806180       0.000004050906      0.000000000000
    0.007216634227       0.000004009704      0.000000000000
    0.007216481338       0.000003969444      0.000000000000
    0.007216345200       0.000003931024      0.000000000000
    0.007216225361       0.000003897172      0.000000000000
    0.007216119762       0.000003868743      0.000000000000
    0.007216027978       0.000003848133      0.000000000000
    0.007215947881       0.000003834486      0.000000000000
    0.007215878805       0.000003829876      0.000000000000
    0.007216053846       0.000003837779      0.000000000000
    0.007216277557       0.000003844225      0.000000000000
    0.007216491755       0.000003852489      0.000000000000
    0.007216695811       0.000003861742      0.000000000000
    0.007216891920       0.000003872101      0.000000000000
    0.007217079398       0.000003882836      0.000000000000
    0.007217259283       0.000003894587      0.000000000000
    0.007217431595       0.000003906156      0.000000000000
    0.007217596998       0.000003918736      0.000000000000
    0.007217755686       0.000003930737      0.000000000000
    0.007217908133       0.000003943826      0.000000000000
    0.007218054551       0.000003956021      0.000000000000
    0.007218195255       0.000003969491      0.000000000000
    0.007218330506       0.000003981739      0.000000000000
    0.007218460454       0.000003995536      0.000000000000
    0.007218585453       0.000004007739      0.000000000000
    0.007218705499       0.000004021852      0.000000000000
    0.007218820951       0.000004033963      0.000000000000
    0.007218931757       0.000004048579      0.000000000000
    0.007219038289       0.000004060619      0.000000000000
    0.007219140607       0.000004075334      0.000000000000
    0.007219238818       0.000004087202      0.000000000000
    0.007219332507       0.000004102598      0.000000000000
    0.007219422977       0.000004114646      0.000000000000
    0.007219508666       0.000004130548      0.000000000000
    0.007219591881       0.000004142464      0.000000000000
    0.007219669856       0.000004158633      0.000000000000
    0.007219745972       0.000004170111      0.000000000000
    0.007219816459       0.000004186312      0.000000000000
    0.007219884832       0.000004197025      0.000000000000
    0.007219948046       0.000004215130      0.000000000000
    0.007220011657       0.000004229835      0.000000000000
    0.007220070388       0.000004251725      0.000000000000
    0.007220129775       0.000004267112      0.000000000000
    0.007220182622       0.000004289543      0.000000000000
    0.007220237031       0.000004304319      0.000000000000
    0.007220285746       0.000004327396      0.000000000000
    0.007220337839       0.000004342893      0.000000000000
    0.007220384959       0.000004367696      0.000000000000
    0.007220433545       0.000004386074      0.000000000000
    0.007220479012       0.000004414379      0.000000000000
    0.007220528146       0.000004434759      0.000000000000
    0.007220575698       0.000004468561      0.000000000000
    0.007220624264       0.000004499058      0.000000000000
    0.007220674595       0.000004542297      0.000000000000
    0.007220726209       0.000004566816      0.000000000000
    0.007220776754       0.000004597449      0.000000000000
    0.007220847708       0.000004619447      0.000000000000
    0.007220906964       0.000004645230      0.000000000000
    0.007220995228       0.000004662101      0.000000000000
    0.007221080951       0.000004677409      0.000000000000
    0.007221278704       0.000004698357      0.000000000000
    0.007221484548       0.000004726851      0.000000000000
    0.007222010392       0.000004620383      0.000000000000
    0.007222507729       0.000004587511      0.000000000000
    0.007222884805       0.000004675671      0.000000000000
    0.007223475245       0.000004676115      0.000000000000
    0.007224748163       0.000002834229      0.000000000000
    0.007228568126      -0.000002532660      0.000000000000
    0.007230942323       0.000006483644      0.000000000000
    0.007228869051      -0.000001651199      0.000000000000
    0.007228622822       0.000005193098      0.000000000000
    0.007228360172      -0.000001586421      0.000000000000
    0.007229488795       0.000005288709      0.000000000000
    0.007229664213       0.000000474666      0.000000000000
    0.007229126733       0.000003079039      0.000000000000
    0.007228357536       0.000000899586      0.000000000000
    0.007228475208       0.000004970332      0.000000000000
    0.007228540149       0.000002024976      0.000000000000
    0.007228795949       0.000003189971      0.000000000000
    0.007228992567       0.000002296115      0.000000000000
    0.007229041566       0.000001368347      0.000000000000
    0.007229157767       0.000001508641      0.000000000000
    0.007228888263       0.000001274981      0.000000000000
    0.007228615499       0.000002858742      0.000000000000
    0.007229137818       0.000004499580      0.000000000000
    0.007228770268       0.000003671839      0.000000000000
    0.007228815038       0.000003559824      0.000000000000
    0.007229110371       0.000005191408      0.000000000000
    0.007229550167       0.000004514062      0.000000000000
    0.007229972458       0.000003818929      0.000000000000
    0.007230308002       0.000003601302      0.000000000000
    0.007230620763       0.000003958778      0.000000000000
    0.007231055420       0.000003161594      0.000000000000
    0.007231354740       0.000003545887      0.000000000000
    0.007231411174       0.000005071717      0.000000000000
    0.007231117181       0.000004324030      0.000000000000
    0.007231130420       0.000005874536      0.000000000000
    0.007231547435       0.000004161979      0.000000000000
    0.007231493783       0.000003919189      0.000000000000
    0.007231284530       0.000005674139      0.000000000000
    0.007231249196       0.000007136177      0.000000000000
    0.007231288282       0.000008221360      0.000000000000
    0.007231592138       0.000009185182      0.000000000000
    0.007232288639       0.000006399273      0.000000000000
    0.007233241827       0.000004741684      0.000000000000
    0.007233416445       0.000004584220      0.000000000000
    0.007235008501       0.000002272825      0.000000000000
    0.007234470956       0.000006614293      0.000000000000
    0.007234722014       0.000005912756      0.000000000000
    0.007232469031       0.000003354026      0.000000000000
    0.007235715213       0.000003862159      0.000000000000
    0.007236918060       0.000003855765      0.000000000000
    0.007237159241       0.000003833394      0.000000000000
    0.007237780879       0.000002692410      0.000000000000
    0.007238401641       0.000001405480      0.000000000000
    0.007239117837       0.000002818714      0.000000000000
    0.007241221684      -0.000001004048      0.000000000000
    0.007241025165      -0.000002023470      0.000000000000
    0.007241149793      -0.000002754520      0.000000000000
    0.007241028158      -0.000002478239      0.000000000000
    0.007241633425       0.000001007555      0.000000000000
    0.007241001044      -0.000000328295      0.000000000000
    0.007241755733       0.000002921070      0.000000000000
    0.007243324007       0.000000499133      0.000000000000
    0.007247861624      -0.000005147358      0.000000000000
    0.007246899536      -0.000006267368      0.000000000000
    0.007248100332      -0.000006895274      0.000000000000
    0.007247585258      -0.000003207981      0.000000000000
    0.007248476894      -0.000002288704      0.000000000000
    0.007249520395      -0.000001911933      0.000000000000
    0.007249231663      -0.000000857479      0.000000000000
    0.007249608267      -0.000000706186      0.000000000000
    0.007248894577       0.000003718691      0.000000000000
    0.007249704190       0.000007918146      0.000000000000
    0.007255922433       0.000001491968      0.000000000000
    0.007256067303       0.000000684462      0.000000000000
    0.007255823998      -0.000000985848      0.000000000000
    0.007260003721      -0.000004255444      0.000000000000
    0.007260819484      -0.000000801724      0.000000000000
    0.007260236287      -0.000004471781      0.000000000000
    0.007261669229       0.000005017105      0.000000000000
    0.007267643256      -0.000001328242      0.000000000000
    0.007269308799      -0.000005511885      0.000000000000
    0.007267736673      -0.000008309407      0.000000000000
    0.007271264719      -0.000007186612      0.000000000000
    0.007274801889      -0.000008147610      0.000000000000
    0.007280365750      -0.000008862846      0.000000000000
    0.007281639953      -0.000012328421      0.000000000000
    0.007277835495      -0.000021474910      0.000000000000
    0.007284580792      -0.000019924392      0.000000000000
    0.007311036818       0.000007119312      0.000000000000
    0.007301175713      -0.000021190163      0.000000000000
    0.007303847431      -0.000005065199      0.000000000000
    0.007308795656      -0.000017301862      0.000000000000
    0.007324365265      -0.000006063747      0.000000000000
    0.007325446965       0.000001024649      0.000000000000
    0.007324846109      -0.000005173351      0.000000000000
    0.007355766539      -0.000028871714      0.000000000000
    0.007377320534      -0.000014715184      0.000000000000
    0.007350250275      -0.000005427997      0.000000000000
    0.007502695344      -0.000023065879      0.000000000000
    0.007714662182       0.000000670919      0.000000000000
    0.007713207393       0.000020030711      0.000000000000
    0.007704404991       0.000035672754      0.000000000000
    0.007721888683       0.000035732816      0.000000000000
    0.007862767431       0.000027614045      0.000000000000
    0.007841478220       0.000038533168      0.000000000000
    0.007843165758       0.000016177460      0.000000000000
    0.007964051046       0.000007439108      0.000000000000
    0.008233706497      -0.000029232259      0.000000000000
    0.008271605187      -0.000040427529      0.000000000000
    0.008390815538      -0.000040548546      0.000000000000
    0.008369656788      -0.000106518758      0.000000000000
    0.008445312334      -0.000056539086      0.000000000000
    0.008408172558      -0.000048599617      0.000000000000
    0.008444441515       0.000031192947      0.000000000000
    0.008458846806       0.000065404530      0.000000000000
    0.008461873580       0.000077594628      0.000000000000
    0.008892251891       0.000063133465      0.000000000000
    0.008894853999       0.000117212791      0.000000000000
    0.008842881197       0.000147896489      0.000000000000
    0.008983004379       0.000218115111      0.000000000000
    0.008994647641       0.000334173212      0.000000000000
    0.008976488899       0.000411240333      0.000000000000
    0.008988964753       0.000505434977      0.000000000000
    0.009058351105       0.000703891525      0.000000000000
    0.009084324231       0.000790642979      0.000000000000
    0.009114043872       0.001048823775      0.000000000000
    0.009061366484       0.001001838823      0.000000000000
    0.009092115159       0.001302097042      0.000000000000
    0.009038660671       0.001284173486      0.000000000000
    0.008593127422       0.002733661087      0.000000000000
    0.009182546827       0.003268690969      0.000000000000
    0.009129567405       0.004661363293      0.000000000000
    0.008557846449       0.004894806408      0.000000000000
    0.022289064847       0.032504757674      0.000000000000
   -0.008219885723       0.031098731341      0.000000000000
    0.006248203057      -0.001391516810      0.000000000000
    0.009005343728      -0.001509883917      0.000000000000
    0.009697061714      -0.001707236380      0.000000000000
    0.012197069650       0.001014900305      0.000000000000
    0.009189474577      -0.002583515919      0.000000000000
    0.012482196678       0.003914110441      0.000000000000
    0.011660159010       0.002689734152      0.000000000000
    0.010150933511       0.002421819713      0.000000000000
    0.009647519690       0.002087512403      0.000000000000
    0.009109633907       0.002306710289      0.000000000000
    0.009117317509       0.001346141174      0.000000000000
    0.009077120388       0.001290268119      0.000000000000
    0.008999970165       0.001106793613      0.000000000000
    0.008991518196       0.001144016817      0.000000000000
    0.009032896084       0.001154219317      0.000000000000
    0.009010253780       0.001136969300      0.000000000000
    0.008999983499       0.001128726227      0.000000000000
    0.008986298704       0.001120606506      0.000000000000
    0.008971597331       0.001111347364      0.000000000000
    0.008964981585       0.001102656187      0.000000000000
    0.008957096241       0.001090771866      0.000000000000
    0.008959714057       0.001080824335      0.000000000000
    0.008929303750       0.001069789998      0.000000000000
    0.008893877591       0.001057088538      0.000000000000
    0.008863164847       0.001044451015      0.000000000000
    0.008835562620       0.001031106788      0.000000000000
    0.008808911988       0.001017554345      0.000000000000
    0.008781758160       0.001005968222      0.000000000000
    0.008754760453       0.000994092947      0.000000000000
    0.008725518455       0.000982168932      0.000000000000
    0.008695825363       0.000969963868      0.000000000000
    0.008664287258       0.000957636874      0.000000000000
    0.008627527034       0.000944600151      0.000000000000
    0.008588623083       0.000930186767      0.000000000000
    0.008549880113       0.000914722160      0.000000000000
    0.008513414020       0.000899087993      0.000000000000
    0.008477162341       0.000883049576      0.000000000000
    0.008442574199       0.000866710101      0.000000000000
    0.008408587153       0.000850524461      0.000000000000
    0.008373357780       0.000834525897      0.000000000000
    0.008336001098       0.000817853347      0.000000000000
    0.008297018900       0.000800661790      0.000000000000
    0.008256725990       0.000783178663      0.000000000000
    0.008216723193       0.000765284307      0.000000000000
    0.008175939999       0.000746997383      0.000000000000
    0.008135012290       0.000728157230      0.000000000000
    0.008094166671       0.000709134678      0.000000000000
    0.008053056416       0.000690003608      0.000000000000
    0.008012713094       0.000670767446      0.000000000000
    0.007972767333       0.000651431398      0.000000000000
    0.007931857620       0.000631915593      0.000000000000
    0.007889650318       0.000612220522      0.000000000000
    0.007846785203       0.000592386885      0.000000000000
    0.007803264371       0.000572189198      0.000000000000
    0.007760516752       0.000551203144      0.000000000000
    0.007215768654       0.000003843806      0.000000000000
    0.007215725177       0.000003861866      0.000000000000
    0.007215687692       0.000003887321      0.000000000000
    0.007215655784       0.000003918190      0.000000000000
    0.007215627839       0.000003955730      0.000000000000
    0.007215604066       0.000003997112      0.000000000000
    0.007215582623       0.000004044144      0.000000000000
    0.007215564342       0.000004093581      0.000000000000
    0.007215547425       0.000004147471      0.000000000000
    0.007215533052       0.000004202295      0.000000000000
    0.007215519616       0.000004259760      0.000000000000
    0.007215508416       0.000004317405      0.000000000000
    0.007215497805       0.000004375977      0.000000000000
    0.007215489278       0.000004433830      0.000000000000
    0.007215481136       0.000004491251      0.000000000000
    0.007215474950       0.000004547147      0.000000000000
    0.007215469087       0.000004601535      0.000000000000
    0.007215465042       0.000004653656      0.000000000000
    0.007215461371       0.000004703383      0.000000000000
    0.007215459400       0.000004750131      0.000000000000
    0.007215457879       0.000004793725      0.000000000000
    0.007215457967       0.000004833693      0.000000000000
    0.007215458609       0.000004869845      0.000000000000
    0.007215460759       0.000004901776      0.000000000000
    0.007215463587       0.000004929259      0.000000000000
    0.007215467848       0.000004952006      0.000000000000
    0.007215472861       0.000004969666      0.000000000000
    0.007215479251       0.000004982083      0.000000000000
    0.007215486463       0.000004988784      0.000000000000
    0.007215494943       0.000004989767      0.000000000000
    0.007215504296       0.000004984325      0.000000000000
    0.007215514801       0.000004972587      0.000000000000
    0.007215526092       0.000004953645      0.000000000000
    0.007215538246       0.000004927869      0.000000000000
    0.007215551124       0.000004893993      0.000000000000