# vtk DataFile Version 2.0
VTK from Matlab
ASCII
DATASET UNSTRUCTURED_GRID
POINTS 13145 float
    0.000500000000       0.000200000000      0.000000000000
    0.000000000000       0.000200000000      0.000000000000
    0.000000000000       0.000000000000      0.000000000000
    0.000500000000       0.000000000000      0.000000000000
   -0.000500000000       0.000200000000      0.000000000000
   -0.000500000000       0.000000000000      0.000000000000
    0.000500000000      -0.000200000000      0.000000000000
    0.000000000000      -0.000200000000      0.000000000000
    0.000000000000      -0.000500000000      0.000000000000
    0.000500000000      -0.000500000000      0.000000000000
   -0.000500000000      -0.000200000000      0.000000000000
   -0.000500000000      -0.000500000000      0.000000000000
    0.000000000000       0.000500000000      0.000000000000
   -0.000500000000       0.000500000000      0.000000000000
    0.000500000000       0.000500000000      0.000000000000
    0.000487500000       0.000200000000      0.000000000000
    0.000475000000       0.000200000000      0.000000000000
    0.000462500000       0.000200000000      0.000000000000
    0.000450000000       0.000200000000      0.000000000000
    0.000437500000       0.000200000000      0.000000000000
    0.000425000000       0.000200000000      0.000000000000
    0.000412500000       0.000200000000      0.000000000000
    0.000400000000       0.000200000000      0.000000000000
    0.000387500000       0.000200000000      0.000000000000
    0.000375000000       0.000200000000      0.000000000000
    0.000362500000       0.000200000000      0.000000000000
    0.000350000000       0.000200000000      0.000000000000
    0.000337500000       0.000200000000      0.000000000000
    0.000325000000       0.000200000000      0.000000000000
    0.000312500000       0.000200000000      0.000000000000
    0.000300000000       0.000200000000      0.000000000000
    0.000287500000       0.000200000000      0.000000000000
    0.000275000000       0.000200000000      0.000000000000
    0.000262500000       0.000200000000      0.000000000000
    0.000250000000       0.000200000000      0.000000000000
    0.000237500000       0.000200000000      0.000000000000
    0.000225000000       0.000200000000      0.000000000000
    0.000212500000       0.000200000000      0.000000000000
    0.000200000000       0.000200000000      0.000000000000
    0.000187500000       0.000200000000      0.000000000000
    0.000175000000       0.000200000000      0.000000000000
    0.000162500000       0.000200000000      0.000000000000
    0.000150000000       0.000200000000      0.000000000000
    0.000137500000       0.000200000000      0.000000000000
    0.000125000000       0.000200000000      0.000000000000
    0.000112500000       0.000200000000      0.000000000000
    0.000100000000       0.000200000000      0.000000000000
    0.000087500000       0.000200000000      0.000000000000
    0.000075000000       0.000200000000      0.000000000000
    0.000062500000       0.000200000000      0.000000000000
    0.000050000000       0.000200000000      0.000000000000
    0.000037500000       0.000200000000      0.000000000000
    0.000025000000       0.000200000000      0.000000000000
    0.000012500000       0.000200000000      0.000000000000
    0.000000000000       0.000191530400      0.000000000000
    0.000000000000       0.000183385000      0.000000000000
    0.000000000000       0.000175551400      0.000000000000
    0.000000000000       0.000168017600      0.000000000000
    0.000000000000       0.000160772200      0.000000000000
    0.000000000000       0.000153804100      0.000000000000
    0.000000000000       0.000147102700      0.000000000000
    0.000000000000       0.000140657800      0.000000000000
    0.000000000000       0.000134459500      0.000000000000
    0.000000000000       0.000128498500      0.000000000000
    0.000000000000       0.000122765700      0.000000000000
    0.000000000000       0.000117252300      0.000000000000
    0.000000000000       0.000111949900      0.000000000000
    0.000000000000       0.000106850500      0.000000000000
    0.000000000000       0.000101946200      0.000000000000
    0.000000000000       0.000097229700      0.000000000000
    0.000000000000       0.000092693600      0.000000000000
    0.000000000000       0.000088331200      0.000000000000
    0.000000000000       0.000084135800      0.000000000000
    0.000000000000       0.000080101000      0.000000000000
    0.000000000000       0.000076220500      0.000000000000
    0.000000000000       0.000072488700      0.000000000000
    0.000000000000       0.000068899600      0.000000000000
    0.000000000000       0.000065447900      0.000000000000
    0.000000000000       0.000062128400      0.000000000000
    0.000000000000       0.000058935900      0.000000000000
    0.000000000000       0.000055865500      0.000000000000
    0.000000000000       0.000052912700      0.000000000000
    0.000000000000       0.000050073000      0.000000000000
    0.000000000000       0.000047341900      0.000000000000
    0.000000000000       0.000044715300      0.000000000000
    0.000000000000       0.000042189300      0.000000000000
    0.000000000000       0.000039759900      0.000000000000
    0.000000000000       0.000037423600      0.000000000000
    0.000000000000       0.000035176700      0.000000000000
    0.000000000000       0.000033015700      0.000000000000
    0.000000000000       0.000030937500      0.000000000000
    0.000000000000       0.000028938800      0.000000000000
    0.000000000000       0.000027016700      0.000000000000
    0.000000000000       0.000025168100      0.000000000000
    0.000000000000       0.000023390200      0.000000000000
    0.000000000000       0.000021680400      0.000000000000
    0.000000000000       0.000020036000      0.000000000000
    0.000000000000       0.000018454600      0.000000000000
    0.000000000000       0.000016933700      0.000000000000
    0.000000000000       0.000015471000      0.000000000000
    0.000000000000       0.000014064400      0.000000000000
    0.000000000000       0.000012711500      0.000000000000
    0.000000000000       0.000011410400      0.000000000000
    0.000000000000       0.000010159100      0.000000000000
    0.000000000000       0.000008955800      0.000000000000
    0.000000000000       0.000007798400      0.000000000000
    0.000000000000       0.000006685400      0.000000000000
    0.000000000000       0.000005615000      0.000000000000
    0.000000000000       0.000004585500      0.000000000000
    0.000000000000       0.000003595500      0.000000000000
    0.000000000000       0.000002643300      0.000000000000
    0.000000000000       0.000001727600      0.000000000000
    0.000000000000       0.000000847000      0.000000000000
    0.000003968300       0.000000000000      0.000000000000
    0.000007936500       0.000000000000      0.000000000000
    0.000011904800       0.000000000000      0.000000000000
    0.000015873000       0.000000000000      0.000000000000
    0.000019841300       0.000000000000      0.000000000000
    0.000023809500       0.000000000000      0.000000000000
    0.000027777800       0.000000000000      0.000000000000
    0.000031746000       0.000000000000      0.000000000000
    0.000035714300       0.000000000000      0.000000000000
    0.000039682500       0.000000000000      0.000000000000
    0.000043650800       0.000000000000      0.000000000000
    0.000047619000       0.000000000000      0.000000000000
    0.000051587300       0.000000000000      0.000000000000
    0.000055555600       0.000000000000      0.000000000000
    0.000059523800       0.000000000000      0.000000000000
    0.000063492100       0.000000000000      0.000000000000
    0.000067460300       0.000000000000      0.000000000000
    0.000071428600       0.000000000000      0.000000000000
    0.000075396800       0.000000000000      0.000000000000
    0.000079365100       0.000000000000      0.000000000000
    0.000083333300       0.000000000000      0.000000000000
    0.000087301600       0.000000000000      0.000000000000
    0.000091269800       0.000000000000      0.000000000000
    0.000095238100       0.000000000000      0.000000000000
    0.000099206400       0.000000000000      0.000000000000
    0.000103174600       0.000000000000      0.000000000000
    0.000107142900       0.000000000000      0.000000000000
    0.000111111100       0.000000000000      0.000000000000
    0.000115079400       0.000000000000      0.000000000000
    0.000119047600       0.000000000000      0.000000000000
    0.000123015900       0.000000000000      0.000000000000
    0.000126984100       0.000000000000      0.000000000000
    0.000130952400       0.000000000000      0.000000000000
    0.000134920600       0.000000000000      0.000000000000
    0.000138888900       0.000000000000      0.000000000000
    0.000142857100       0.000000000000      0.000000000000
    0.000146825400       0.000000000000      0.000000000000
    0.000150793700       0.000000000000      0.000000000000
    0.000154761900       0.000000000000      0.000000000000
    0.000158730200       0.000000000000      0.000000000000
    0.000162698400       0.000000000000      0.000000000000
    0.000166666700       0.000000000000      0.000000000000
    0.000170634900       0.000000000000      0.000000000000
    0.000174603200       0.000000000000      0.000000000000
    0.000178571400       0.000000000000      0.000000000000
    0.000182539700       0.000000000000      0.000000000000
    0.000186507900       0.000000000000      0.000000000000
    0.000190476200       0.000000000000      0.000000000000
    0.000194444400       0.000000000000      0.000000000000
    0.000198412700       0.000000000000      0.000000000000
    0.000202381000       0.000000000000      0.000000000000
    0.000206349200       0.000000000000      0.000000000000
[...]
POINT_DATA 13145
VECTORS Displacement float
   -0.000000054054       0.000006223036      0.000000000000
   -0.000000072521       0.000006055996      0.000000000000
   -0.000000247035       0.000000645989      0.000000000000
    0.000012968705       0.000039577610      0.000000000000
   -0.000000074278       0.000006059170      0.000000000000
    0.000000016340       0.000000007046      0.000000000000
    0.000000032153      -0.000000182847      0.000000000000
    0.000000016809       0.000000012608      0.000000000000
   -0.000000009744       0.000000000000      0.000000000000
   -0.000000003436       0.000000000000      0.000000000000
    0.000000013014       0.000000006815      0.000000000000
    0.000000007805       0.000000000000      0.000000000000
   -0.000000097047       0.000006067000      0.000000000000
   -0.000000080088       0.000006067000      0.000000000000
   -0.000000085828       0.000006067000      0.000000000000
   -0.000000058617       0.000006218445      0.000000000000
   -0.000000062875       0.000006212598      0.000000000000
   -0.000000066543       0.000006205441      0.000000000000
   -0.000000069830       0.000006197798      0.000000000000
   -0.000000072284       0.000006189144      0.000000000000
   -0.000000074269       0.000006180633      0.000000000000
   -0.000000075364       0.000006171499      0.000000000000
   -0.000000076354       0.000006162988      0.000000000000
   -0.000000076725       0.000006154292      0.000000000000
   -0.000000076996       0.000006146441      0.000000000000
   -0.000000076787       0.000006138563      0.000000000000
   -0.000000076557       0.000006131504      0.000000000000
   -0.000000076160       0.000006124542      0.000000000000
   -0.000000075714       0.000006118328      0.000000000000
   -0.000000075284       0.000006112312      0.000000000000
   -0.000000074804       0.000006106930      0.000000000000
   -0.000000074408       0.000006101838      0.000000000000
   -0.000000073991       0.000006097256      0.000000000000
   -0.000000073668       0.000006092989      0.000000000000
   -0.000000073371       0.000006089173      0.000000000000
   -0.000000073120       0.000006085562      0.000000000000
   -0.000000072926       0.000006082277      0.000000000000
   -0.000000072765       0.000006079237      0.000000000000
   -0.000000072660       0.000006076436      0.000000000000
   -0.000000072581       0.000006073844      0.000000000000
   -0.000000072551       0.000006071465      0.000000000000
   -0.000000072539       0.000006069283      0.000000000000
   -0.000000072561       0.000006067283      0.000000000000
   -0.000000072572       0.000006065468      0.000000000000
   -0.000000072613       0.000006063742      0.000000000000
   -0.000000072606       0.000006062343      0.000000000000
   -0.000000072643       0.000006060937      0.000000000000
   -0.000000072621       0.000006059962      0.000000000000
   -0.000000072610       0.000006058777      0.000000000000
   -0.000000072593       0.000006058267      0.000000000000
   -0.000000072558       0.000006057294      0.000000000000
   -0.000000072581       0.000006057142      0.000000000000
   -0.000000072523       0.000006056410      0.000000000000
   -0.000000072616       0.000006056608      0.000000000000
   -0.000000071407       0.000006056045      0.000000000000
   -0.000000070259       0.000006055642      0.000000000000
   -0.000000069228       0.000006055768      0.000000000000
   -0.000000068181       0.000006055346      0.000000000000
   -0.000000067228       0.000006055537      0.000000000000
   -0.000000066275       0.000006055075      0.000000000000
   -0.000000065429       0.000006055361      0.000000000000
   -0.000000064557       0.000006054843      0.000000000000
   -0.000000063830       0.000006055241      0.000000000000
   -0.000000063025       0.000006054638      0.000000000000
   -0.000000062431       0.000006055173      0.000000000000
   -0.000000061669       0.000006054456      0.000000000000
   -0.000000061219       0.000006055147      0.000000000000
   -0.000000060482       0.000006054284      0.000000000000
   -0.000000060170       0.000006055151      0.000000000000
   -0.000000059454       0.000006054113      0.000000000000
   -0.000000059273       0.000006055174      0.000000000000
   -0.000000058563       0.000006053930      0.000000000000
   -0.000000058543       0.000006055239      0.000000000000
   -0.000000057850       0.000006053792      0.000000000000
   -0.000000057843       0.000006055291      0.000000000000
   -0.000000057326       0.000006053554      0.000000000000
   -0.000000057514       0.000006055401      0.000000000000
   -0.000000056758       0.000006053405      0.000000000000
   -0.000000057292       0.000006055430      0.000000000000
   -0.000000056233       0.000006053183      0.000000000000
   -0.000000057179       0.000006055470      0.000000000000
   -0.000000055903       0.000006052881      0.000000000000
   -0.000000057087       0.000006055520      0.000000000000
   -0.000000055860       0.000006052561      0.000000000000
   -0.000000057098       0.000006055585      0.000000000000
   -0.000000055784       0.000006052186      0.000000000000
   -0.000000057485       0.000006055728      0.000000000000
   -0.000000055599       0.000006051895      0.000000000000
   -0.000000057921       0.000006055777      0.000000000000
   -0.000000055571       0.000006051242      0.000000000000
   -0.000000057900       0.000006055819      0.000000000000
   -0.000000055477       0.000006050245      0.000000000000
   -0.000000057404       0.000006055429      0.000000000000
   -0.000000055165       0.000006049394      0.000000000000
   -0.000000057521       0.000006055739      0.000000000000
   -0.000000055839       0.000006047917      0.000000000000
   -0.000000057593       0.000006056072      0.000000000000
   -0.000000056734       0.000006046106      0.000000000000
   -0.000000057349       0.000006056974      0.000000000000
   -0.000000057463       0.000006044144      0.000000000000
   -0.000000057539       0.000006057081      0.000000000000
   -0.000000056583       0.000006042458      0.000000000000
   -0.000000057254       0.000006058270      0.000000000000
   -0.000000054515       0.000006040489      0.000000000000
   -0.000000052686       0.000006059738      0.000000000000
   -0.000000043864       0.000006037829      0.000000000000
   -0.000000050333       0.000006060917      0.000000000000
   -0.000000021309       0.000006040573      0.000000000000
   -0.000000043034       0.000006064886      0.000000000000
   -0.000000003493       0.000006040205      0.000000000000
   -0.000000045154       0.000006062181      0.000000000000
    0.000000011290       0.000006028643      0.000000000000
   -0.000000112861       0.000006088232      0.000000000000
    0.000000093374       0.000003895658      0.000000000000
   -0.000000077428       0.000001038709      0.000000000000
    0.000000083155       0.000004116125      0.000000000000
   -0.000000013006       0.000002680389      0.000000000000
    0.000000086838       0.000004841981      0.000000000000
    0.000000044892       0.000004086515      0.000000000000
    0.000000087896       0.000005466644      0.000000000000
    0.000000078280       0.000005239474      0.000000000000
    0.000000078072       0.000005879668      0.000000000000
    0.000000074169       0.000005841211      0.000000000000
    0.000000066793       0.000005921935      0.000000000000
    0.000000063692       0.000005897949      0.000000000000
    0.000000059114       0.000005906465      0.000000000000
    0.000000055536       0.000005905797      0.000000000000
    0.000000052269       0.000005906570      0.000000000000
    0.000000048880       0.000005912666      0.000000000000
    0.000000046212       0.000005914757      0.000000000000
    0.000000043499       0.000005924329      0.000000000000
    0.000000041494       0.000005929732      0.000000000000
    0.000000039968       0.000005941422      0.000000000000
    0.000000038882       0.000005942149      0.000000000000
    0.000000038478       0.000005949724      0.000000000000
    0.000000037327       0.000005960090      0.000000000000
    0.000000034547       0.000005975589      0.000000000000
    0.000000031222       0.000005981032      0.000000000000
    0.000000028793       0.000005984502      0.000000000000
    0.000000026273       0.000005989575      0.000000000000
    0.000000024549       0.000005993779      0.000000000000
    0.000000023002       0.000005998192      0.000000000000
    0.000000022351       0.000006003225      0.000000000000
    0.000000021903       0.000006007257      0.000000000000
    0.000000022098       0.000006012426      0.000000000000
    0.000000021880       0.000006015309      0.000000000000
    0.000000021553       0.000006017828      0.000000000000
    0.000000020175       0.000006023832      0.000000000000
    0.000000018985       0.000006028395      0.000000000000
    0.000000017823       0.000006033332      0.000000000000
    0.000000017521       0.000006035242      0.000000000000
    0.000000016934       0.000006038604      0.000000000000
    0.000000016803       0.000006042341      0.000000000000
    0.000000016321       0.000006043442      0.000000000000
    0.000000016325       0.000006047554      0.000000000000
    0.000000016074       0.000006049101      0.000000000000
    0.000000016477       0.000006051242      0.000000000000
    0.000000016596       0.000006052530      0.000000000000
    0.000000017191       0.000006054479      0.000000000000
    0.000000017417       0.000006055830      0.000000000000
    0.000000018016       0.000006057476      0.000000000000
    0.000000018228       0.000006058620      0.000000000000
    0.000000018876       0.000006061348      0.000000000000
    0.000000019236       0.000006063157      0.000000000000
    0.000000019604       0.000006066089      0.000000000000
    0.000000019607       0.000006068772      0.000000000000
    0.000000019605       0.000006073537      0.000000000000
    0.000000019409       0.000006076027      0.000000000000
    0.000000019403       0.000006078894      0.000000000000
    0.000000019787       0.000006081331      0.000000000000
    0.000000020183       0.000006083636      0.000000000000
    0.000000021269       0.000006079882      0.000000000000
    0.000000021355       0.000006083926      0.000000000000
    0.000000022469       0.000006090626      0.000000000000
    0.000000022540       0.000006094587      0.000000000000
    0.000000023514       0.000006095909      0.000000000000
    0.000000023579       0.000006099239      0.000000000000
    0.000000025996       0.000006101311      0.000000000000
    0.000000028034       0.000006093691      0.000000000000
    0.000000028135       0.000006101224      0.000000000000
    0.000000028824       0.000006103538      0.000000000000
    0.000000029064       0.000006103612      0.000000000000
    0.000000030616       0.000006105473      0.000000000000
    0.000000031492       0.000006107906      0.000000000000
    0.000000033262       0.000006106554      0.000000000000
    0.000000034486       0.000006109349      0.000000000000
    0.000000035754       0.000006113323      0.000000000000
    0.000000036651       0.000006116688      0.000000000000
    0.000000038483       0.000006117040      0.000000000000
    0.000000039495       0.000006119397      0.000000000000
    0.000000041522       0.000006120722      0.000000000000
    0.000000042309       0.000006124395      0.000000000000
    0.000000043568       0.000006126221      0.000000000000
    0.000000044791       0.000006126608      0.000000000000
    0.000000046051       0.000006128677      0.000000000000
    0.000000047985       0.000006130880      0.000000000000
    0.000000049400       0.000006134916      0.000000000000
    0.000000051219       0.000006137334      0.000000000000
    0.000000052623       0.000006138268      0.000000000000
    0.000000053638       0.000006139038      0.000000000000
    0.000000055593       0.000006140442      0.000000000000
    0.000000059199       0.000006146012      0.000000000000
    0.000000066233       0.000006151727      0.000000000000
    0.000000066424       0.000006152526      0.000000000000
    0.000000069636       0.000006153668      0.000000000000
    0.000000072444       0.000006157802      0.000000000000
    0.000000078489       0.000006160488      0.000000000000
    0.000000081811       0.000006170612      0.000000000000
    0.000000091116       0.000006188265      0.000000000000
    0.000000089880       0.000006180555      0.000000000000
    0.000000096269       0.000006179386      0.000000000000
    0.000000096674       0.000006188630      0.000000000000
    0.000000103424       0.000006196598      0.000000000000
    0.000000104492       0.000006204510      0.000000000000
    0.000000111053       0.000006206027      0.000000000000
    0.000000112005       0.000006213224      0.000000000000
    0.000000118966       0.000006218418      0.000000000000
    0.000000119251       0.000006215899      0.000000000000
    0.000000125581       0.000006214104      0.000000000000
    0.000000128876       0.000006231310      0.000000000000
    0.000000134205       0.000006245210      0.000000000000
    0.000000139538       0.000006240749      0.000000000000
    0.000000142962       0.000006212447      0.000000000000
    0.000000148861       0.000006236779      0.000000000000
    0.000000156110       0.000006268409      0.000000000000
    0.000000152716       0.000006197931      0.000000000000
    0.000000159234       0.000006337770      0.000000000000
    0.000000199107       0.000006217293      0.000000000000
    0.000000223506       0.000006352586      0.000000000000
    0.000000235718       0.000006348701      0.000000000000
    0.000000215858       0.000006395329      0.000000000000
    0.000000230142       0.000005674391      0.000000000000
    0.000000217144       0.000006708358      0.000000000000
    0.000000592651       0.000004940304      0.000000000000
    0.000000579092       0.000008039679      0.000000000000
    0.000000342296       0.000001689877      0.000000000000
   -0.000005888078       0.000013302845      0.000000000000
    0.000017118487      -0.000008719545      0.000000000000
    0.000044636945       0.000042156880      0.000000000000
    0.000011373559       0.000022939935      0.000000000000
    0.000008700487       0.000057305852      0.000000000000
   -0.000007711532       0.000010461456      0.000000000000
   -0.000006266785       0.000009657132      0.000000000000
   -0.000005618611       0.000008938803      0.000000000000
   -0.000005064619       0.000007005569      0.000000000000
   -0.000003782591       0.000006727718      0.000000000000
   -0.000003573756       0.000006523925      0.000000000000
   -0.000001962484       0.000006450938      0.000000000000
   -0.000001038192       0.000006681506      0.000000000000
   -0.000000427518       0.000006692000      0.000000000000
   -0.000000064749       0.000006730669      0.000000000000
    0.000000166995       0.000006742666      0.000000000000
    0.000000249749       0.000006745700      0.000000000000
    0.000000240472       0.000006732449      0.000000000000
    0.000000210082       0.000006690366      0.000000000000
    0.000000192018       0.000006660247      0.000000000000
    0.000000184522       0.000006638224      0.000000000000
    0.000000179481       0.000006620863      0.000000000000
    0.000000173356       0.000006604248      0.000000000000
    0.000000164535       0.000006588007      0.000000000000
    0.000000156014       0.000006572871      0.000000000000
    0.000000145547       0.000006558708      0.000000000000
    0.000000135438       0.000006543907      0.000000000000
    0.000000126023       0.000006529418      0.000000000000
    0.000000116968       0.000006515629      0.000000000000
    0.000000108121       0.000006502232      0.000000000000
    0.000000099740       0.000006489456      0.000000000000
    0.000000091571       0.000006477130      0.000000000000
    0.000000083570       0.000006465432      0.000000000000
    0.000000075704       0.000006454357      0.000000000000
    0.000000068236       0.000006443274      0.000000000000
    0.000000061371       0.000006432453      0.000000000000
    0.000000054759       0.000006422147      0.000000000000
    0.000000048291       0.000006412148      0.000000000000
    0.000000042221       0.000006402443      0.000000000000
    0.000000036200       0.000006392996      0.000000000000
    0.000000030503       0.000006383811      0.000000000000
    0.000000024942       0.000006374935      0.000000000000
    0.000000019540       0.000006366153      0.000000000000
    0.000000014346       0.000006357621      0.000000000000
    0.000000009319       0.000006349189      0.000000000000
    0.000000004461       0.000006340992      0.000000000000
   -0.000000000230       0.000006332840      0.000000000000
   -0.000000004766       0.000006324938      0.000000000000
   -0.000000009150       0.000006317021      0.000000000000
   -0.000000013381       0.000006309396      0.000000000000
   -0.000000017501       0.000006301698      0.000000000000
   -0.000000021432       0.000006294298      0.000000000000
   -0.000000025285       0.000006286757      0.000000000000
   -0.000000028954       0.000006279486      0.000000000000
   -0.000000032540       0.000006272115      0.000000000000
   -0.000000035929       0.000006264984      0.000000000000
   -0.000000039278       0.000006257791      0.000000000000
   -0.000000042409       0.000006250762      0.000000000000
   -0.000000045514       0.000006243740      0.000000000000
   -0.000000048423       0.000006236810      0.000000000000
   -0.000000051284       0.000006229915      0.000000000000
   -0.000000072718       0.000006056468      0.000000000000
   -0.000000072566       0.000006055847      0.000000000000
   -0.000000072883       0.000006056595      0.000000000000
   -0.000000072664       0.000006056007      0.000000000000
   -0.000000073086       0.000006056895      0.000000000000
   -0.000000072793       0.000006056360      0.000000000000
   -0.000000073331       0.000006057356      0.000000000000
   -0.000000072962       0.000006056868      0.000000000000
   -0.000000073577       0.000006057865      0.000000000000
   -0.000000073169       0.000006057523      0.000000000000
   -0.000000073834       0.000006058319      0.000000000000
   -0.000000073397       0.000006058192      0.000000000000
   -0.000000074084       0.000006058801      0.000000000000
   -0.000000073629       0.000006058820      0.000000000000
   -0.000000074300       0.000006059264      0.000000000000
   -0.000000073847       0.000006059337      0.000000000000
   -0.000000074485       0.000006059671      0.000000000000
   -0.000000074076       0.000006059767      0.000000000000
   -0.000000074630       0.000006060042      0.000000000000
   -0.000000074265       0.000006060145      0.000000000000
   -0.000000074734       0.000006060356      0.000000000000
   -0.000000074415       0.000006060449      0.000000000000
   -0.000000074800       0.000006060602      0.000000000000
   -0.000000074523       0.000006060674      0.000000000000
   -0.000000074832       0.000006060778      0.000000000000
   -0.000000074590       0.000006060819      0.000000000000
   -0.000000074834       0.000006060877      0.000000000000
   -0.000000074627       0.000006060883      0.000000000000
   -0.000000074807       0.000006060895      0.000000000000
   -0.000000074636       0.000006060895      0.000000000000
   -0.000000074749       0.000006060814      0.000000000000
   -0.000000074608       0.000006060809      0.000000000000
   -0.000000074668       0.000006060640      0.000000000000
   -0.000000074548       0.000006060616      0.000000000000
   -0.000000074577       0.000006060313      0.000000000000