# vtk DataFile Version 2.0
VTK from Matlab
ASCII
DATASET UNSTRUCTURED_GRID
POINTS 13145 float
    0.000500000000       0.000200000000      0.000000000000
    0.000000000000       0.000200000000      0.000000000000
    0.000000000000       0.000000000000      0.000000000000
    0.000500000000       0.000000000000      0.000000000000
   -0.000500000000       0.000200000000      0.000000000000
   -0.000500000000       0.000000000000      0.000000000000
    0.000500000000      -0.000200000000      0.000000000000
    0.000000000000      -0.000200000000      0.000000000000
    0.000000000000      -0.000500000000      0.000000000000
    0.000500000000      -0.000500000000      0.000000000000
   -0.000500000000      -0.000200000000      0.000000000000
   -0.000500000000      -0.000500000000      0.000000000000
    0.000000000000       0.000500000000      0.000000000000
   -0.000500000000       0.000500000000      0.000000000000
    0.000500000000       0.000500000000      0.000000000000
    0.000487500000       0.000200000000      0.000000000000
    0.000475000000       0.000200000000      0.000000000000
    0.000462500000       0.000200000000      0.000000000000
    0.000450000000       0.000200000000      0.000000000000
    0.000437500000       0.000200000000      0.000000000000
    0.000425000000       0.000200000000      0.000000000000
    0.000412500000       0.000200000000      0.000000000000
    0.000400000000       0.000200000000      0.000000000000
    0.000387500000       0.000200000000      0.000000000000
    0.000375000000       0.000200000000      0.000000000000
    0.000362500000       0.000200000000      0.000000000000
    0.000350000000       0.000200000000      0.000000000000
    0.000337500000       0.000200000000      0.000000000000
    0.000325000000       0.000200000000      0.000000000000
    0.000312500000       0.000200000000      0.000000000000
    0.000300000000       0.000200000000      0.000000000000
    0.000287500000       0.000200000000      0.000000000000
    0.000275000000       0.000200000000      0.000000000000
    0.000262500000       0.000200000000      0.000000000000
    0.000250000000       0.000200000000      0.000000000000
    0.000237500000       0.000200000000      0.000000000000
    0.000225000000       0.000200000000      0.000000000000
    0.000212500000       0.000200000000      0.000000000000
    0.000200000000       0.000200000000      0.000000000000
    0.000187500000       0.000200000000      0.000000000000
    0.000175000000       0.000200000000      0.000000000000
    0.000162500000       0.000200000000      0.000000000000
    0.000150000000       0.000200000000      0.000000000000
    0.000137500000       0.000200000000      0.000000000000
    0.000125000000       0.000200000000      0.000000000000
    0.000112500000       0.000200000000      0.000000000000
    0.000100000000       0.000200000000      0.000000000000
    0.000087500000       0.000200000000      0.000000000000
    0.000075000000       0.000200000000      0.000000000000
    0.000062500000       0.000200000000      0.000000000000
    0.000050000000       0.000200000000      0.000000000000
    0.000037500000       0.000200000000      0.000000000000
    0.000025000000       0.000200000000      0.000000000000
    0.000012500000       0.000200000000      0.000000000000
    0.000000000000       0.000191530400      0.000000000000
    0.000000000000       0.000183385000      0.000000000000
    0.000000000000       0.000175551400      0.000000000000
    0.000000000000       0.000168017600      0.000000000000
    0.000000000000       0.000160772200      0.000000000000
    0.000000000000       0.000153804100      0.000000000000
    0.000000000000       0.000147102700      0.000000000000
    0.000000000000       0.000140657800      0.000000000000
    0.000000000000       0.000134459500      0.000000000000
    0.000000000000       0.000128498500      0.000000000000
    0.000000000000       0.000122765700      0.000000000000
    0.000000000000       0.000117252300      0.000000000000
    0.000000000000       0.000111949900      0.000000000000
    0.000000000000       0.000106850500      0.000000000000
    0.000000000000       0.000101946200      0.000000000000
    0.000000000000       0.000097229700      0.000000000000
    0.000000000000       0.000092693600      0.000000000000
    0.000000000000       0.000088331200      0.000000000000
    0.000000000000       0.000084135800      0.000000000000
    0.000000000000       0.000080101000      0.000000000000
    0.000000000000       0.000076220500      0.000000000000
    0.000000000000       0.000072488700      0.000000000000
    0.000000000000       0.000068899600      0.000000000000
    0.000000000000       0.000065447900      0.000000000000
    0.000000000000       0.000062128400      0.000000000000
    0.000000000000       0.000058935900      0.000000000000
    0.000000000000       0.000055865500      0.000000000000
    0.000000000000       0.000052912700      0.000000000000
    0.000000000000       0.000050073000      0.000000000000
    0.000000000000       0.000047341900      0.000000000000
    0.000000000000       0.000044715300      0.000000000000
    0.000000000000       0.000042189300      0.000000000000
    0.000000000000       0.000039759900      0.000000000000
    0.000000000000       0.000037423600      0.000000000000
    0.000000000000       0.000035176700      0.000000000000
    0.000000000000       0.000033015700      0.000000000000
    0.000000000000       0.000030937500      0.000000000000
    0.000000000000       0.000028938800      0.000000000000
    0.000000000000       0.000027016700      0.000000000000
    0.000000000000       0.000025168100      0.000000000000
    0.000000000000       0.000023390200      0.000000000000
    0.000000000000       0.000021680400      0.000000000000
    0.000000000000       0.000020036000      0.000000000000
    0.000000000000       0.000018454600      0.000000000000
    0.000000000000       0.000016933700      0.000000000000
    0.000000000000       0.000015471000      0.000000000000
    0.000000000000       0.000014064400      0.000000000000
    0.000000000000       0.000012711500      0.000000000000
    0.000000000000       0.000011410400      0.000000000000
    0.000000000000       0.000010159100      0.000000000000
    0.000000000000       0.000008955800      0.000000000000
    0.000000000000       0.000007798400      0.000000000000
    0.000000000000       0.000006685400      0.000000000000
    0.000000000000       0.000005615000      0.000000000000
    0.000000000000       0.000004585500      0.000000000000
    0.000000000000       0.000003595500      0.000000000000
    0.000000000000       0.000002643300      0.000000000000
    0.000000000000       0.000001727600      0.000000000000
    0.000000000000       0.000000847000      0.000000000000
    0.000003968300       0.000000000000      0.000000000000
    0.000007936500       0.000000000000      0.000000000000
    0.000011904800       0.000000000000      0.000000000000
    0.000015873000       0.000000000000      0.000000000000
    0.000019841300       0.000000000000      0.000000000000
    0.000023809500       0.000000000000      0.000000000000
    0.000027777800       0.000000000000      0.000000000000
    0.000031746000       0.000000000000      0.000000000000
    0.000035714300       0.000000000000      0.000000000000
    0.000039682500       0.000000000000      0.000000000000
    0.000043650800       0.000000000000      0.000000000000
    0.000047619000       0.000000000000      0.000000000000
    0.000051587300       0.000000000000      0.000000000000
    0.000055555600       0.000000000000      0.000000000000
    0.000059523800       0.000000000000      0.000000000000
    0.000063492100       0.000000000000      0.000000000000
    0.000067460300       0.000000000000      0.000000000000
    0.000071428600       0.000000000000      0.000000000000
    0.000075396800       0.000000000000      0.000000000000
    0.000079365100       0.000000000000      0.000000000000
    0.000083333300       0.000000000000      0.000000000000
    0.000087301600       0.000000000000      0.000000000000
    0.000091269800       0.000000000000      0.000000000000
    0.000095238100       0.000000000000      0.000000000000
    0.000099206400       0.000000000000      0.000000000000
    0.000103174600       0.000000000000      0.000000000000
    0.000107142900       0.000000000000      0.000000000000
    0.000111111100       0.000000000000      0.000000000000
    0.000115079400       0.000000000000      0.000000000000
    0.000119047600       0.000000000000      0.000000000000
    0.000123015900       0.000000000000      0.000000000000
    0.000126984100       0.000000000000      0.000000000000
    0.000130952400       0.000000000000      0.000000000000
    0.000134920600       0.000000000000      0.000000000000
    0.000138888900       0.000000000000      0.000000000000
    0.000142857100       0.000000000000      0.000000000000
    0.000146825400       0.000000000000      0.000000000000
    0.000150793700       0.000000000000      0.000000000000
    0.000154761900       0.000000000000      0.000000000000
    0.000158730200       0.000000000000      0.000000000000
    0.000162698400       0.000000000000      0.000000000000
    0.000166666700       0.000000000000      0.000000000000
    0.000170634900       0.000000000000      0.000000000000
    0.000174603200       0.000000000000      0.000000000000
    0.000178571400       0.000000000000      0.000000000000
    0.000182539700       0.000000000000      0.000000000000
    0.000186507900       0.000000000000      0.000000000000
    0.000190476200       0.000000000000      0.000000000000
    0.000194444400       0.000000000000      0.000000000000
    0.000198412700       0.000000000000      0.000000000000
    0.000202381000       0.000000000000      0.000000000000
    0.000206349200       0.000000000000      0.000000000000
[...]
POINT_DATA 13145
VECTORS Displacement float
   -0.000000271133       0.000006979076      0.000000000000
   -0.000000320382       0.000006488205      0.000000000000
   -0.000000773522       0.000000033056      0.000000000000
    0.000006517958      -0.000007794289      0.000000000000
   -0.000000328602       0.000006501370      0.000000000000
   -0.000000783400       0.000000028998      0.000000000000
   -0.000000762987      -0.000000417958      0.000000000000
   -0.000000800183       0.000000026597      0.000000000000
   -0.000000870040       0.000000000000      0.000000000000
   -0.000000842311       0.000000000000      0.000000000000
   -0.000000799001       0.000000027658      0.000000000000
   -0.000000820241       0.000000000000      0.000000000000
   -0.000000390101       0.000006521000      0.000000000000
   -0.000000343411       0.000006521000      0.000000000000
   -0.000000370574       0.000006521000      0.000000000000
   -0.000000284330       0.000006966401      0.000000000000
   -0.000000296231       0.000006947334      0.000000000000
   -0.000000306610       0.000006924924      0.000000000000
   -0.000000315224       0.000006900322      0.000000000000
   -0.000000321909       0.000006873286      0.000000000000
   -0.000000327057       0.000006846074      0.000000000000
   -0.000000330337       0.000006817744      0.000000000000
   -0.000000332544       0.000006790742      0.000000000000
   -0.000000333234       0.000006763527      0.000000000000
   -0.000000333366       0.000006738556      0.000000000000
   -0.000000332620       0.000006714227      0.000000000000
   -0.000000331581       0.000006692005      0.000000000000
   -0.000000330067       0.000006670737      0.000000000000
   -0.000000328587       0.000006651693      0.000000000000
   -0.000000326892       0.000006633458      0.000000000000
   -0.000000325350       0.000006617412      0.000000000000
   -0.000000323819       0.000006602262      0.000000000000
   -0.000000322501       0.000006588952      0.000000000000
   -0.000000321257       0.000006576530      0.000000000000
   -0.000000320279       0.000006565553      0.000000000000
   -0.000000319388       0.000006555375      0.000000000000
   -0.000000318778       0.000006546403      0.000000000000
   -0.000000318156       0.000006538169      0.000000000000
   -0.000000317839       0.000006530858      0.000000000000
   -0.000000317482       0.000006524279      0.000000000000
   -0.000000317422       0.000006518399      0.000000000000
   -0.000000317277       0.000006513252      0.000000000000
   -0.000000317422       0.000006508585      0.000000000000
   -0.000000317417       0.000006504698      0.000000000000
   -0.000000317711       0.000006501043      0.000000000000
   -0.000000317767       0.000006498282      0.000000000000
   -0.000000318153       0.000006495442      0.000000000000
   -0.000000318250       0.000006493710      0.000000000000
   -0.000000318676       0.000006491511      0.000000000000
   -0.000000318838       0.000006490820      0.000000000000
   -0.000000319230       0.000006489132      0.000000000000
   -0.000000319463       0.000006489281      0.000000000000
   -0.000000319794       0.000006488086      0.000000000000
   -0.000000320168       0.000006488990      0.000000000000
   -0.000000317292       0.000006488695      0.000000000000
   -0.000000314220       0.000006487677      0.000000000000
   -0.000000311453       0.000006488368      0.000000000000
   -0.000000308697       0.000006487357      0.000000000000
   -0.000000306245       0.000006488234      0.000000000000
   -0.000000303777       0.000006487185      0.000000000000
   -0.000000301692       0.000006488260      0.000000000000
   -0.000000299469       0.000006487140      0.000000000000
   -0.000000297749       0.000006488411      0.000000000000
   -0.000000295756       0.000006487184      0.000000000000
   -0.000000294412       0.000006488663      0.000000000000
   -0.000000292615       0.000006487279      0.000000000000
   -0.000000291643       0.000006488976      0.000000000000
   -0.000000290005       0.000006487395      0.000000000000
   -0.000000289393       0.000006489316      0.000000000000
   -0.000000287902       0.000006487506      0.000000000000
   -0.000000287625       0.000006489659      0.000000000000
   -0.000000286236       0.000006487585      0.000000000000
   -0.000000286323       0.000006490028      0.000000000000
   -0.000000285066       0.000006487714      0.000000000000
   -0.000000285302       0.000006490311      0.000000000000
   -0.000000284377       0.000006487653      0.000000000000
   -0.000000284987       0.000006490647      0.000000000000
   -0.000000283803       0.000006487726      0.000000000000
   -0.000000284958       0.000006490801      0.000000000000
   -0.000000283535       0.000006487679      0.000000000000
   -0.000000285222       0.000006490905      0.000000000000
   -0.000000283688       0.000006487528      0.000000000000
   -0.000000285588       0.000006490937      0.000000000000
   -0.000000284382       0.000006487334      0.000000000000
   -0.000000286318       0.000006490924      0.000000000000
   -0.000000285285       0.000006487078      0.000000000000
   -0.000000287740       0.000006490867      0.000000000000
   -0.000000286302       0.000006486958      0.000000000000
   -0.000000289370       0.000006490665      0.000000000000
   -0.000000287751       0.000006486607      0.000000000000
   -0.000000290716       0.000006490467      0.000000000000
   -0.000000289444       0.000006486103      0.000000000000
   -0.000000291748       0.000006489649      0.000000000000
   -0.000000291102       0.000006485889      0.000000000000
   -0.000000293548       0.000006489465      0.000000000000
   -0.000000293327       0.000006485478      0.000000000000
   -0.000000295926       0.000006488676      0.000000000000
   -0.000000295871       0.000006485012      0.000000000000
   -0.000000298796       0.000006487764      0.000000000000
   -0.000000298483       0.000006484597      0.000000000000
   -0.000000301796       0.000006486255      0.000000000000
   -0.000000301392       0.000006484760      0.000000000000
   -0.000000306250       0.000006485093      0.000000000000
   -0.000000303156       0.000006485721      0.000000000000
   -0.000000309191       0.000006484918      0.000000000000
   -0.000000302912       0.000006486779      0.000000000000
   -0.000000313005       0.000006485228      0.000000000000
   -0.000000297556       0.000006488325      0.000000000000
   -0.000000317827       0.000006485380      0.000000000000
   -0.000000273821       0.000006484710      0.000000000000
   -0.000000301291       0.000006477272      0.000000000000
   -0.000000264999       0.000006481715      0.000000000000
   -0.000000535824       0.000005945817      0.000000000000
   -0.000000597720       0.000001922023      0.000000000000
   -0.000000646996       0.000000106251      0.000000000000
   -0.000000609070       0.000000198567      0.000000000000
   -0.000000652861       0.000000064782      0.000000000000
   -0.000000630414       0.000000086831      0.000000000000
   -0.000000658228       0.000000061521      0.000000000000
   -0.000000644275       0.000000074625      0.000000000000
   -0.000000664409       0.000000048115      0.000000000000
   -0.000000660245       0.000000054676      0.000000000000
   -0.000000667020       0.000000039392      0.000000000000
   -0.000000658956       0.000000038536      0.000000000000
   -0.000000680534       0.000000027507      0.000000000000
   -0.000000676176       0.000000014612      0.000000000000
   -0.000000677809       0.000000024724      0.000000000000
   -0.000000677082       0.000000021714      0.000000000000
   -0.000000681052       0.000000015283      0.000000000000
   -0.000000679747       0.000000014963      0.000000000000
   -0.000000682469       0.000000008915      0.000000000000
   -0.000000680887       0.000000009258      0.000000000000
   -0.000000683316       0.000000002899      0.000000000000
   -0.000000680891       0.000000005838      0.000000000000
   -0.000000683540       0.000000000432      0.000000000000
   -0.000000684082      -0.000000001641      0.000000000000
   -0.000000681148      -0.000000003437      0.000000000000
   -0.000000682959      -0.000000004306      0.000000000000
   -0.000000682004      -0.000000004352      0.000000000000
   -0.000000675733      -0.000000002006      0.000000000000
   -0.000000679339      -0.000000010619      0.000000000000
   -0.000000671494      -0.000000008554      0.000000000000
   -0.000000675688      -0.000000011161      0.000000000000
   -0.000000669882      -0.000000009419      0.000000000000
   -0.000000671745      -0.000000011358      0.000000000000
   -0.000000668699      -0.000000012327      0.000000000000
   -0.000000668308      -0.000000015199      0.000000000000
   -0.000000665021      -0.000000017037      0.000000000000
   -0.000000665466      -0.000000018367      0.000000000000
   -0.000000658905      -0.000000018135      0.000000000000
   -0.000000661855      -0.000000020601      0.000000000000
   -0.000000655435      -0.000000021456      0.000000000000
   -0.000000655846      -0.000000023675      0.000000000000
   -0.000000653877      -0.000000025061      0.000000000000
   -0.000000649594      -0.000000026565      0.000000000000
   -0.000000649276      -0.000000028150      0.000000000000
   -0.000000645987      -0.000000031375      0.000000000000
   -0.000000641386      -0.000000032011      0.000000000000
   -0.000000638390      -0.000000034236      0.000000000000
   -0.000000639403      -0.000000036855      0.000000000000
   -0.000000636386      -0.000000039000      0.000000000000
   -0.000000628788      -0.000000040130      0.000000000000
   -0.000000631034      -0.000000042904      0.000000000000
   -0.000000624077      -0.000000045457      0.000000000000
   -0.000000623734      -0.000000047530      0.000000000000
   -0.000000617197      -0.000000052722      0.000000000000
   -0.000000615635      -0.000000055394      0.000000000000
   -0.000000610126      -0.000000057343      0.000000000000
   -0.000000604012      -0.000000060883      0.000000000000
   -0.000000600832      -0.000000070524      0.000000000000
   -0.000000595452      -0.000000066281      0.000000000000
   -0.000000610376      -0.000000066296      0.000000000000
   -0.000000608432      -0.000000068171      0.000000000000
   -0.000000600867      -0.000000072197      0.000000000000
   -0.000000599308      -0.000000074082      0.000000000000
   -0.000000580450      -0.000000079956      0.000000000000
   -0.000000587967      -0.000000083966      0.000000000000
   -0.000000578762      -0.000000086472      0.000000000000
   -0.000000577922      -0.000000090212      0.000000000000
   -0.000000575992      -0.000000097305      0.000000000000
   -0.000000576798      -0.000000097439      0.000000000000
   -0.000000566223      -0.000000101800      0.000000000000
   -0.000000564686      -0.000000104863      0.000000000000
   -0.000000557588      -0.000000110332      0.000000000000
   -0.000000552354      -0.000000114264      0.000000000000
   -0.000000549694      -0.000000118406      0.000000000000
   -0.000000542717      -0.000000125217      0.000000000000
   -0.000000535282      -0.000000128751      0.000000000000
   -0.000000532019      -0.000000134189      0.000000000000
   -0.000000526940      -0.000000139144      0.000000000000
   -0.000000520719      -0.000000144476      0.000000000000
   -0.000000512798      -0.000000150433      0.000000000000
   -0.000000509623      -0.000000155252      0.000000000000
   -0.000000500712      -0.000000161989      0.000000000000
   -0.000000490907      -0.000000168267      0.000000000000
   -0.000000473484      -0.000000171418      0.000000000000
   -0.000000479795      -0.000000177276      0.000000000000
   -0.000000450941      -0.000000185087      0.000000000000
   -0.000000486273      -0.000000195984      0.000000000000
   -0.000000473725      -0.000000203678      0.000000000000
   -0.000000474902      -0.000000203302      0.000000000000
   -0.000000464259      -0.000000213195      0.000000000000
   -0.000000439608      -0.000000224418      0.000000000000
   -0.000000456494      -0.000000225206      0.000000000000
   -0.000000393734      -0.000000227946      0.000000000000
   -0.000000397153      -0.000000249692      0.000000000000
   -0.000000384294      -0.000000256114      0.000000000000
   -0.000000391133      -0.000000271172      0.000000000000
   -0.000000364160      -0.000000278077      0.000000000000
   -0.000000372653      -0.000000293548      0.000000000000
   -0.000000353748      -0.000000305805      0.000000000000
   -0.000000363789      -0.000000317851      0.000000000000
   -0.000000355815      -0.000000329569      0.000000000000
   -0.000000345469      -0.000000340313      0.000000000000
   -0.000000292407      -0.000000349741      0.000000000000
   -0.000000314366      -0.000000372446      0.000000000000
   -0.000000290191      -0.000000387306      0.000000000000
   -0.000000279671      -0.000000401278      0.000000000000
   -0.000000278707      -0.000000417021      0.000000000000
   -0.000000261062      -0.000000433046      0.000000000000
   -0.000000233436      -0.000000464824      0.000000000000
   -0.000000242728      -0.000000477931      0.000000000000
   -0.000000226356      -0.000000491717      0.000000000000
   -0.000000227367      -0.000000508441      0.000000000000
   -0.000000171376      -0.000000541028      0.000000000000
   -0.000000231614      -0.000000531209      0.000000000000
   -0.000000179874      -0.000000570554      0.000000000000
   -0.000000204919      -0.000000579992      0.000000000000
   -0.000000201892      -0.000000588089      0.000000000000
   -0.000000072740      -0.000000688877      0.000000000000
   -0.000000234926      -0.000000615087      0.000000000000
   -0.000000084574      -0.000000758730      0.000000000000
   -0.000000132426      -0.000000808741      0.000000000000
   -0.000000094801      -0.000000577285      0.000000000000
    0.000000636409       0.000002982760      0.000000000000
    0.000000042721       0.000002223643      0.000000000000
    0.000004066336       0.000004765062      0.000000000000
    0.000000960087      -0.000001222653      0.000000000000
    0.000015224838      -0.000002097426      0.000000000000
    0.000013451223      -0.000000720547      0.000000000000
    0.000016156637      -0.000002410222      0.000000000000
    0.000013564606       0.000002058449      0.000000000000
    0.000008135413      -0.000003125482      0.000000000000
    0.000020268040       0.000002081200      0.000000000000
    0.000012310973      -0.000001507344      0.000000000000
    0.000010212590       0.000007608565      0.000000000000
    0.000018124354       0.000007162462      0.000000000000
    0.000009888067       0.000012159972      0.000000000000
    0.000010476375       0.000007073611      0.000000000000
    0.000005961989       0.000010647360      0.000000000000
    0.000005156667       0.000009405598      0.000000000000
    0.000003599547       0.000010477118      0.000000000000
    0.000002365391       0.000009513256      0.000000000000
    0.000001755413       0.000009302579      0.000000000000
    0.000001438784       0.000009075135      0.000000000000
    0.000001156544       0.000008860411      0.000000000000
    0.000000960712       0.000008702551      0.000000000000
    0.000000796452       0.000008569854      0.000000000000
    0.000000674682       0.000008438601      0.000000000000
    0.000000567830       0.000008315645      0.000000000000
    0.000000501339       0.000008211115      0.000000000000
    0.000000437923       0.000008134751      0.000000000000
    0.000000382134       0.000008064506      0.000000000000
    0.000000336562       0.000008000649      0.000000000000
    0.000000295487       0.000007943013      0.000000000000
    0.000000258765       0.000007890621      0.000000000000
    0.000000225932       0.000007842443      0.000000000000
    0.000000195394       0.000007796800      0.000000000000
    0.000000167379       0.000007752990      0.000000000000
    0.000000140814       0.000007712643      0.000000000000
    0.000000115382       0.000007675230      0.000000000000
    0.000000092049       0.000007639809      0.000000000000
    0.000000070252       0.000007606083      0.000000000000
    0.000000048752       0.000007573435      0.000000000000
    0.000000029219       0.000007542048      0.000000000000
    0.000000008351       0.000007511600      0.000000000000
   -0.000000009243       0.000007480520      0.000000000000
   -0.000000026878       0.000007451941      0.000000000000
   -0.000000043584       0.000007423714      0.000000000000
   -0.000000059727       0.000007396562      0.000000000000
   -0.000000075365       0.000007369904      0.000000000000
   -0.000000090427       0.000007343950      0.000000000000
   -0.000000104975       0.000007318399      0.000000000000
   -0.000000119061       0.000007293479      0.000000000000
   -0.000000132570       0.000007268790      0.000000000000
   -0.000000145670       0.000007244710      0.000000000000
   -0.000000158194       0.000007220775      0.000000000000
   -0.000000170358       0.000007197567      0.000000000000
   -0.000000182090       0.000007174618      0.000000000000
   -0.000000193436       0.000007152157      0.000000000000
   -0.000000204500       0.000007129803      0.000000000000
   -0.000000215096       0.000007107714      0.000000000000
   -0.000000225542       0.000007085820      0.000000000000
   -0.000000235280       0.000007064009      0.000000000000
   -0.000000244968       0.000007042594      0.000000000000
   -0.000000253837       0.000007021045      0.000000000000
   -0.000000262714       0.000007000246      0.000000000000
   -0.000000320968       0.000006489687      0.000000000000
   -0.000000321093       0.000006489060      0.000000000000
   -0.000000321954       0.000006491062      0.000000000000
   -0.000000321942       0.000006490621      0.000000000000
   -0.000000323033       0.000006492773      0.000000000000
   -0.000000322890       0.000006492424      0.000000000000
   -0.000000324178       0.000006494665      0.000000000000
   -0.000000323898       0.000006494350      0.000000000000
   -0.000000325293       0.000006496504      0.000000000000
   -0.000000324909       0.000006496344      0.000000000000
   -0.000000326326       0.000006498150      0.000000000000
   -0.000000325857       0.000006498188      0.000000000000
   -0.000000327237       0.000006499666      0.000000000000
   -0.000000326705       0.000006499825      0.000000000000
   -0.000000327999       0.000006501015      0.000000000000
   -0.000000327431       0.000006501207      0.000000000000
   -0.000000328617       0.000006502185      0.000000000000
   -0.000000328059       0.000006502385      0.000000000000
   -0.000000329092       0.000006503200      0.000000000000
   -0.000000328555       0.000006503400      0.000000000000
   -0.000000329433       0.000006504048      0.000000000000
   -0.000000328930       0.000006504227      0.000000000000
   -0.000000329657       0.000006504714      0.000000000000
   -0.000000329192       0.000006504856      0.000000000000
   -0.000000329781       0.000006505199      0.000000000000
   -0.000000329354       0.000006505279      0.000000000000
   -0.000000329819       0.000006505492      0.000000000000
   -0.000000329429       0.000006505492      0.000000000000
   -0.000000329777       0.000006505577      0.000000000000
   -0.000000329431       0.000006505511      0.000000000000
   -0.000000329662       0.000006505433      0.000000000000
   -0.000000329354       0.000006505292      0.000000000000
   -0.000000329486       0.000006505051      0.000000000000
   -0.000000329218       0.000006504815      0.000000000000
   -0.000000329266       0.000006504358      0.000000000000